<?xml version="1.0"?>
<VTKFile type="UnstructuredGrid"  version="0.1"  >
<UnstructuredGrid>
<Piece  NumberOfPoints="2022" NumberOfCells="3905">
<Points>
<DataArray  type="Float64"  NumberOfComponents="3"  format="ascii">-0.9995162822919881 0.03109986226983675 0  -0.9995162822919881 -0.03109986226983651 0  -0.9956493479690185 -0.09317926748407192 0  -0.9879304397407568 -0.1548981802140844 0  -0.9763894205636071 -0.2160178219764831 0  -0.9610709403987245 -0.2763017327508303 0  -0.9420342634699892 -0.3355166857975248 0  -0.9193530389822364 -0.3934335899667521 0  -0.8931150161867916 -0.4498283760076358 0  -0.8634217048966636 -0.5044828634486397 0  -0.8303879827647976 -0.5571856046954283 0  -0.7941416508447534 -0.6077327030805317 0  -0.7548229391532574 -0.6559286016999396 0  -0.7125839641475068 -0.7015868399847768 0  -0.6675881402161539 -0.744530775081015 0  -0.6200095474607752 -0.7845942652463659 0  -0.5700322582137825 -0.8216223126204009 0  -0.5178496248983256 -0.8554716628811637 0  -0.4636635319853273 -0.8860113594683148 0  -0.4076836149416893 -0.9131232502286186 0  -0.3501264491913909 -0.9367024445236749 0  -0.291214712227252 -0.9566577190314197 0  -0.2311763221149701 -0.9729118706714374 0  -0.1702435557223987 -0.9854020152886813 0  -0.1086521500854744 -0.9940798309400526 0  -0.04664039038741795 -0.9989117448426108 0  0.01555181192035077 -0.9998790632601495 0  0.07768384728900643 -0.9969780438256293 0  0.1395153389439227 -0.9902199100196695 0  0.2008070728557184 -0.9796308077490816 0  0.2613219232128601 -0.9652517041934358 0  0.3208257698153674 -0.9471382293110002 0  0.3790884038403785 -0.9253604606172419 0  0.4358844184753714 -0.9000026520685299 0  0.490994080973322 -0.8711629080999506 0  0.5442041827560273 -0.8389528040783012 0  0.5953088642766656 -0.803496954638676 0  0.6441104114503976 -0.7649325315746478 0  0.6904200205717462 -0.7234087331472503 0  0.7340585287594604 -0.6790862068658857 0  0.7748571071028897 -0.6321364279743266 0  0.8126579138282498 -0.5827410360463015 0  0.8473147049577773 -0.5310911322572754 0  0.8786934000992683 -0.4773865400511279 0  0.9066726011770726 -0.4218350320620621 0  0.9311440620976594 -0.3646515262826555 0  0.9520131075327298 -0.3060572545878874 0  0.969198999199666 -0.246278906832002 0  0.9826352482222637 -0.1855477538294935 0  0.9922698723632765 -0.1240987526132593 0  0.9980655971335943 -0.0621696374314802 0  1 0 0  0.9980655971335943 0.06216963743148052 0  0.9922698723632765 0.1240987526132593 0  0.9826352482222637 0.1855477538294933 0  0.9691989991996661 0.2462789068320013 0  0.9520131075327299 0.3060572545878873 0  0.9311440620976595 0.3646515262826552 0  0.9066726011770726 0.4218350320620622 0  0.8786934000992688 0.477386540051127 0  0.8473147049577775 0.531091132257275 0  0.8126579138282503 0.5827410360463009 0  0.7748571071028899 0.6321364279743263 0  0.7340585287594601 0.6790862068658859 0  0.6904200205717467 0.7234087331472497 0  0.6441104114503978 0.7649325315746476 0  0.5953088642766661 0.8034969546386757 0  0.5442041827560273 0.8389528040783012 0  0.4909940809733222 0.8711629080999505 0  0.4358844184753712 0.90000265206853 0  0.3790884038403794 0.9253604606172415 0  0.3208257698153678 0.9471382293110001 0  0.2613219232128607 0.9652517041934356 0  0.2008070728557187 0.9796308077490816 0  0.1395153389439231 0.9902199100196695 0  0.07768384728900624 0.9969780438256293 0  0.01555181192035079 0.9998790632601495 0  -0.04664039038741771 0.9989117448426108 0  -0.1086521500854744 0.9940798309400526 0  -0.1702435557223985 0.9854020152886813 0  -0.2311763221149697 0.9729118706714375 0  -0.2912147122272519 0.9566577190314197 0  -0.3501264491913905 0.9367024445236751 0  -0.4076836149416887 0.9131232502286188 0  -0.4636635319853274 0.8860113594683148 0  -0.5178496248983254 0.8554716628811638 0  -0.5700322582137827 0.8216223126204008 0  -0.620009547460775 0.7845942652463661 0  -0.6675881402161536 0.7445307750810152 0  -0.7125839641475069 0.7015868399847767 0  -0.7548229391532568 0.6559286016999401 0  -0.7941416508447533 0.607732703080532 0  -0.8303879827647973 0.5571856046954289 0  -0.8634217048966635 0.5044828634486399 0  -0.8931150161867915 0.449828376007636 0  -0.9193530389822362 0.3934335899667527 0  -0.9420342634699891 0.335516685797525 0  -0.9610709403987245 0.2763017327508305 0  -0.976389420563607 0.2160178219764834 0  -0.9879304397407567 0.1548981802140847 0  -0.9956493479690186 0.09317926748407171 0  5.551115123125783e-17 0 0  0.02333148104424389 -0.4996975849918167 0  -0.4209280963089264 -0.270047118857733 0  -0.00777966912389263 0.5001814782683327 0  -0.4395593226777351 0.2388087860642122 0  0.4442595773531702 -0.2296504661340836 0  0.4423925704067452 0.258482580900499 0  -0.6651486582575017 -0.04143219748347785 0  -0.3287098382517658 0.5832245839803352 0  0.3466890397163773 -0.5727196372249457 0  -0.2918151200712525 -0.6025321641375986 0  0.3230162658566326 0.5762200782021024 0  0.6683672950285938 0.01527679304875809 0  -0.7025928895082204 0.2258725737643941 0  -0.5718504183690389 0.4665214753659448 0  -0.542710655779982 -0.5020680316624897 0  0.5813630834444037 -0.4540527216333786 0  0.1491947766468252 0.2524717701697159 0  0.2830612929698411 0.003046961144007788 0  0.1441699005738253 -0.2436620139494793 0  -0.1388560041427788 -0.2466405164019328 0  -0.2855463377583715 -0.001647919230600514 0  -0.1442086298178765 0.2479082636799899 0  -0.1187916235737837 0.7328206594370892 0  -0.07300263801713545 -0.7387883212203921 0  0.5962669409661588 0.4563051433021531 0  0.7087446857970995 -0.2349375285920891 0  -0.6674377015453163 -0.2886306903687117 0  0.1195633378147606 0.7037538824123228 0  0.1697381037901342 -0.7388865522751753 0  0.6681356154214577 0.2416466605471067 0  -0.2679744298694503 -0.401962615527571 0  0.2088335603544491 -0.4307138477654194 0  0.4740587623311665 0.0613200991607939 0  -0.1949775464410695 0.4383909063428807 0  -0.4820136903536306 0.04206552139571121 0  0.5086382190404931 0.6279114083760715 0  0.2931647757595038 0.3837106302070115 0  -0.3977316151836833 0.4153928614271748 0  0.8110099959168922 0.1271587223650321 0  -0.8011037500639352 -0.1637831060937915 0  -0.8201300737720695 0.05108601025773882 0  0.4092742881237901 -0.4051098328645908 0  -0.5052006739601993 0.6392951173809412 0  -0.2981784980049969 0.7624621529114175 0  0.5218954340712294 -0.627827846533499 0  -0.447910854813887 -0.6905056585933735 0  -0.2501997050620266 -0.7795248930481341 0  0.3362667274473467 0.7531648461132786 0  0.8152703914874666 -0.08938231006403732 0  0.1659377057806948 0.5020082897293465 0  0.3455637284030154 -0.7488221651697442 0  -0.5527208909239346 -0.1660831165424255 0  0.5785954697393136 -0.127574831330856 0  -0.125207573330868 -0.578801203441129 0  -0.7292625703617568 0.3962020600296529 0  0.7519209052211966 0.3787142233101828 0  -0.7112127304779425 -0.4457833342148129 0  0.03930906251743724 0.8418944160041535 0  -0.40240422016394 -0.1110474624281762 0  0.4460628519952527 0.4143838158833938 0  0.1591343619238914 -0.5809751192318731 0  0.2967736134690338 -0.2914604510684526 0  -0.1129308433779321 -0.4228406677914103 0  0.02213437337686615 -0.3425993932387146 0  -0.1381756081722318 0.580764693797892 0  -0.2935510861096439 0.2974695489943695 0  0.3451350964369386 0.1417379061931819 0  -0.3179465306075686 0.1471508546109051 0  0.03950964385163493 -0.8461903288140989 0  0.7354189720468894 -0.3970284500424835 0  0.2056107280916567 0.8262801318628323 0  -0.2842864256991968 -0.2053873628914543 0  0.3211465683754942 -0.1427527114874482 0  0.003770026324731485 0.168090356366038 0  0.004485747676541946 0.3343616508317944 0  0.1406758648996468 0.08093229784893238 0  0.1404408605565098 -0.08138619316291411 0  -0.0002365153281450285 -0.1622743339952615 0  -0.142310868591863 -0.08092992084104275 0  -0.1416514501087424 0.08349845308993681 0  -0.3918901255966294 -0.4889350676140473 0  -0.5676907364146558 0.1635055494378738 0  -0.5705326150420498 0.3150030514525305 0  0.03063188402343345 -0.6415918287745908 0  -0.8042439563488961 -0.3149553308921465 0  -0.8383872850068251 0.1902761570660613 0  -0.6356097174141544 0.5880100497917053 0  -0.598261571786873 -0.6268468944145426 0  0.6472548037315684 -0.5736643369816096 0  -0.6824205939486836 0.09242333031617389 0  -0.1748367034031682 0.8529352006544857 0  -0.1395623613206797 -0.8550216334909679 0  0.5496346349979665 0.1745825000499298 0  0.5750724899989313 -0.3038117655607379 0  -0.5383755827401081 -0.3563724941951704 0  0.6368521839598871 0.5852059414316831 0  0.8389464341137104 -0.2411917202850598 0  0.8230317946895901 0.2627001928453164 0  0.4474702812377729 -0.09444218791067419 0  -0.01039644345079718 0.641739009226776 0  0.5494620674796687 0.3339557342437605 0  0.1254931155218234 0.3793920118378314 0  0.4597186346106346 -0.5194351967460381 0  -0.4422024255722171 0.5317904080318188 0  0.3187159128609073 0.2626310497312937 0  -0.6770383169587997 -0.1649319445983651 0  0.252378320348904 -0.8371608764484268 0  0.2562972222737581 -0.6537623766332417 0  -0.2324479464013347 0.6590464662729728 0  -0.4321215713087805 0.7520294629121379 0  0.2409401066752064 0.6713348420076577 0  0.695824795451179 -0.1016115770006848 0  -0.1967046037086473 -0.6735580808179211 0  0.7107733514995316 0.4910917266505546 0  -0.7942649515777171 0.298771509337957 0  0.8762710271648161 0.02013029094262096 0  -0.2014855026831708 -0.4943333803832685 0  -0.880127545018407 -0.05482326063978059 0  0.6947680012785505 0.1284888653170302 0  -0.3748214000881579 -0.7922416636990919 0  0.2276613052537662 0.1625937354850626 0  0.07832732132735343 0.572576168484091 0  -0.08224176762925209 0.411310100749688 0  0.4571163124086939 0.7551420974441174 0  0.398239261218658 0.6595555369163871 0  0.4348963931120646 0.5335890184726879 0  -0.3787968992480747 -0.3758280199632927 0  -0.5039197808489907 -0.06657685903797524 0  0.4601730122222897 -0.7601916715805839 0  0.4158381347752194 -0.6589451582402598 0  0.5337497987550025 -0.02901956494055508 0  -0.7719304189794466 -0.05948880086976177
[...]
<PointData  Scalars="f_52"> 
<DataArray  type="Float64"  Name="f_52"  format="ascii">0.0000000000000000e+00  0.0000000000000000e+00  0.0000000000000000e+00  0.0000000000000000e+00  0.0000000000000000e+00  0.0000000000000000e+00  0.0000000000000000e+00  0.0000000000000000e+00  0.0000000000000000e+00  0.0000000000000000e+00  0.0000000000000000e+00  0.0000000000000000e+00  0.0000000000000000e+00  0.0000000000000000e+00  0.0000000000000000e+00  0.0000000000000000e+00  0.0000000000000000e+00  0.0000000000000000e+00  0.0000000000000000e+00  0.0000000000000000e+00  0.0000000000000000e+00  0.0000000000000000e+00  0.0000000000000000e+00  0.0000000000000000e+00  0.0000000000000000e+00  0.0000000000000000e+00  0.0000000000000000e+00  0.0000000000000000e+00  0.0000000000000000e+00  0.0000000000000000e+00  0.0000000000000000e+00  0.0000000000000000e+00  0.0000000000000000e+00  0.0000000000000000e+00  0.0000000000000000e+00  0.0000000000000000e+00  0.0000000000000000e+00  0.0000000000000000e+00  0.0000000000000000e+00  0.0000000000000000e+00  0.0000000000000000e+00  0.0000000000000000e+00  0.0000000000000000e+00  0.0000000000000000e+00  0.0000000000000000e+00  0.0000000000000000e+00  0.0000000000000000e+00  0.0000000000000000e+00  0.0000000000000000e+00  0.0000000000000000e+00  0.0000000000000000e+00  0.0000000000000000e+00  0.0000000000000000e+00  0.0000000000000000e+00  0.0000000000000000e+00  0.0000000000000000e+00  0.0000000000000000e+00  0.0000000000000000e+00  0.0000000000000000e+00  0.0000000000000000e+00  0.0000000000000000e+00  0.0000000000000000e+00  0.0000000000000000e+00  0.0000000000000000e+00  0.0000000000000000e+00  0.0000000000000000e+00  0.0000000000000000e+00  0.0000000000000000e+00  0.0000000000000000e+00  0.0000000000000000e+00  0.0000000000000000e+00  0.0000000000000000e+00  0.0000000000000000e+00  0.0000000000000000e+00  0.0000000000000000e+00  0.0000000000000000e+00  0.0000000000000000e+00  0.0000000000000000e+00  0.0000000000000000e+00  0.0000000000000000e+00  0.0000000000000000e+00  0.0000000000000000e+00  0.0000000000000000e+00  0.0000000000000000e+00  0.0000000000000000e+00  0.0000000000000000e+00  0.0000000000000000e+00  0.0000000000000000e+00  0.0000000000000000e+00  0.0000000000000000e+00  0.0000000000000000e+00  0.0000000000000000e+00  0.0000000000000000e+00  0.0000000000000000e+00  0.0000000000000000e+00  0.0000000000000000e+00  0.0000000000000000e+00  0.0000000000000000e+00  0.0000000000000000e+00  0.0000000000000000e+00  0.0000000000000000e+00  1.5935396593446793e-02  5.2081589809498639e-03  6.4630509589293280e-03  5.3859999892857807e-02  1.4173063479221112e-02  6.7525214049051945e-03  1.4364274797043948e-02  5.4269131215972733e-03  2.2576101276517005e-02  3.3044845703453156e-03  3.2341676832640179e-03  2.3256672564771427e-02  5.7809252877713338e-03  5.8940004798604438e-03  9.5405141416959639e-03  2.7398919575208178e-03  2.8587865237979840e-03  2.5387892335029215e-02  1.3320280076800693e-02  9.1984468675961207e-03  9.1641838577607680e-03  1.3158315399126484e-02  2.5278041211401162e-02  3.5153782104582872e-02  2.3098222696960251e-03  8.6569702928037482e-03  3.3035136788306520e-03  3.4034943886799823e-03  3.9221448980871501e-02  2.1696223067745059e-03  6.8473522790173666e-03  5.8580510874629713e-03  5.7515325229232934e-03  1.0488396517296699e-02  3.3629779526923399e-02  1.0018874233962152e-02  9.6417196034854907e-03  2.4141631959797853e-02  1.8261381027871223e-02  3.3112484242344793e-03  2.4858999712790032e-03  3.0114144251318980e-03  4.8308577410308721e-03  9.4722442009273228e-03  1.6196282511108318e-02  1.7637123399866703e-03  1.6338285071580878e-03  1.5879713881978164e-03  1.4281161712184548e-02  2.6283220502947352e-03  4.0025515448770331e-02  1.5631440973468088e-03  6.0924381481000352e-03  6.1200250071979092e-03  4.0383205548063343e-03  4.6405779639231998e-03  4.1275457666786856e-03  1.7393209806229567e-03  2.1865717517770361e-02  9.0917050300689684e-03  1.5643323134176244e-02  3.9352314987506276e-03  7.3252599300768070e-03  6.2029541518561857e-03  7.6673394403232054e-03  4.5850993117225965e-02  2.1505265781720510e-02  1.5344051120520882e-02  1.6240760546254260e-02  1.2893744881160027e-03  1.8443173607810262e-03  1.6504412629343521e-02  8.8977311408629436e-03  9.6511685412492589e-03  2.2875023229011852e-02  3.4335324222879153e-02  1.7921971199259819e-02  1.2906351711668960e-02  1.1365154453675334e-02  1.2901485921311686e-02  1.7997765450792041e-02  3.9714472855438181e-03  9.2678512920678514e-03  1.0043404927718935e-02  3.3997172649238199e-03  1.6174117253835209e-03  2.7294493652256680e-03  5.1928455736173018e-03  1.2778069210465399e-03  1.3381056545754204e-03  5.9513040961214790e-03  1.5089664607475895e-02  1.1214761528677180e-03  9.8815956476232484e-03  4.3493793779103345e-03  4.2063769328488246e-03  5.2123364978728191e-03  1.5951600053431898e-03  2.9059546999357223e-03  8.6534468178898448e-03  5.6480370102349992e-02  1.0868709337512387e-02  3.4821974630827958e-02  3.1853344747333565e-03  1.5285385191208379e-02  1.9387675762707019e-02  4.2724571696843251e-03  1.0641613909261624e-03  2.8168511382809544e-03  2.9517677047146695e-02  8.7546489826059674e-03  2.7847385018180737e-02  4.4613323978013025e-03  2.7843383724464412e-03  4.2527588413087064e-03  3.4503080630369416e-03  1.9620077861628926e-03  4.9031137259821951e-03  1.7384313600412847e-03  5.8426389084153887e-03  1.0727346003845317e-03  1.9212278406783405e-02  5.4346712472716538e-02  4.0206274435096591e-02  7.3848915343339384e-03  1.4930753593791618e-02  1.5725621848633495e-02  5.4417190242891265e-03  8.0844818926439892e-03  9.8393106638659583e-04  2.0827769576745730e-03  8.0140121254358987e-03  3.4592201131542336e-03  2.3103227759626588e-02  3.5731162362957120e-03  1.6742152957049687e-03  1.2226141150317516e-03  2.1900933053384825e-03  3.8486559180027783e-03  7.2435300826117748e-03  2.0859230823663784e-03  7.9444259975346206e-03  6.2703780579322346e-03  2.1849393035480967e-02  4.0379628555012405e-02  2.7380731280568799e-03  2.2816040314389552e-03  2.4588569485202400e-02  1.1325161583753648e-02  9.2975345302765307e-03  5.7228800584730698e-03  7.6544920175868596e-03  1.2906974205955947e-02  1.1130124877386578e-02  1.1154492029945451e-03  1.9680636144685678e-02  1.4143370449120245e-02  1.2587815451895228e-02  8.1593805826316486e-03  1.1192585282324080e-02  1.1864309246892874e-03  1.8123218243725224e-02  1.4784200239582145e-02  7.3278753331723206e-03  4.2764721836718545e-03  4.0117246535391407e-03  3.2610807676847500e-02  2.7868804425146439e-02  8.4563957279495299e-04  4.6663515552957382e-03  1.2411454869030890e-03  2.6921621869977937e-02  2.9841227339106571e-03  9.0159741789780940e-03  9.5143478820839764e-03  7.7443903807255642e-04  5.1706906585035906e-03  8.9647596022912341e-04  4.8274425395833705e-03  1.3072374556959913e-03  9.5129742490473613e-03  1.1351083892361878e-02  5.4766381985146169e-03  7.0774847543084926e-03  4.4920824264193413e-03  4.0339205045538298e-02  7.8522384269837132e-03  7.4995971442456634e-03  4.6139500464355927e-03  2.9785246390672082e-03  1.0169730767597033e-02  1.6274973441610463e-03  2.9450963211473762e-02  2.2785280219152267e-02  4.5251149384072740e-03  2.3460199476480828e-03  1.2656589445045759e-03  2.9177597252302567e-03  9.3056530675370806e-03  4.4283156280696288e-03  6.3679120188634836e-03  8.7600641801328049e-04  1.0653601224162473e-03  2.3097070557824468e-02  1.9182628199786078e-03  1.6168524994768927e-02  1.3757225112765026e-02  1.7715496503397383e-03  1.4372261213203810e-02  2.2142078358786507e-03  2.7778868856361879e-03  1.0617054759622506e-02  1.7617708436911836e-02  4.3063507255927259e-02  2.0607672905326177e-03  1.0988009861739983e-02  7.7449067148892107e-04  9.4148204406770803e-04  1.4473262756917070e-03  1.2405754151011531e-02  1.1190117581100044e-02  3.7882405040894746e-03  4.7894407093858650e-02  6.8072092580164527e-03  6.6574837843355458e-03  8.2924512345609724e-03  7.9215026986084378e-04  4.5890414877520387e-03  5.7360469395633410e-03  1.3077619849737750e-03  1.8545259373420040e-03  6.7597094502101188e-04  1.7149948133651800e-02  3.1650781466966427e-02  2.6383505729616487e-02  2.1877875087140241e-02  7.8758646540509486e-03  2.1364874683478179e-02  6.7147740841235369e-03  2.0447183668440332e-02  5.0856320674846417e-03  4.4473014167685536e-03  3.9425912976610135e-03  1.3349866622118178e-02  2.7585352228863616e-03  1.0778459298807629e-02  1.7280538818219807e-03  1.5748672198741365e-02  6.2470864005134893e-03  6.7191189499297803e-04  2.2350910349543760e-03  1.6412179458055621e-03  4.2205499271951111e-03  5.2708363663223397e-03  6.3666321350129345e-03  3.2599002803866952e-03  3.8117930164551319e-03  1.8964950508807692e-02  1.8747682430137358e-02  1.5572665573824080e-02  1.3363372671726768e-02  1.1127392194428286e-02  2.7422044121997322e-02  2.2235873301929065e-02  4.6405466684106148e-03  6.3632940488492938e-03  7.1546012569993402e-03  8.1104560511477027e-03  1.3608931850776225e-03  2.5892689758495284e-02  5.6964782179959005e-02  8.0698923769772417e-04  1.3578486580826978e-02  1.2865224061858312e-02  1.5557321156925838e-02  8.7350809150269339e-04  2.7564162438398054e-03  1.3169643325370546e-02  2.2897606283549744e-03  9.0902151939352112e-04  6.3931097335489890e-03  1.9118767471598052e-03  1.1438908762791761e-02  8.9260161410659854e-03  5.0672044144604786e-03  5.2900291578567510e-03  1.0892496519630940e-02  2.5252189548832953e-03  9.4298056469029508e-03  8.1870146490201148e-03  2.6554256474936984e-02  2.6092911974833631e-03  4.2533379415097628e-03  2.9913348187928829e-03  2.0023930059047818e-02  2.2428703962484135e-02  2.1289350934159371e-03  8.0852932652828099e-03  5.8823513269647791e-03  3.3628431652403083e-02  4.8419277071510940e-02  1.4374098514092170e-02  3.8456610143313731e-03  2.3393332135490498e-03  4.2569946487751968e-03  1.1980322920206078e-02  1.0122573499637572e-02  3.1747922626099399e-02  8.2065985140888711e-03  6.7149309286864793e-03  7.6915661774823799e-03  4.8523741880019927e-02  1.2656707647150210e-02  1.8908206683423549e-03  7.6780788548891556e-03  3.8972946586356906e-03  1.5342267333373429e-02  1.0543669779615817e-02  1.1161733252922808e-02  6.3714608914648219e-04  3.1105394403359880e-03  7.0493971272753385e-03  7.6526643542778232e-03  3.1918442040125105e-03  4.3603042674505649e-03  1.7595772642161670e-02  7.1268869588530367e-03  1.0568694807256428e-02  3.4661017511044482e-03  3.0451971412010739e-02  3.5734204746200571e-03  2.3818267414466477e-03  2.8464244414595285e-02  2.4788596064919521e-03  9.5119141497875918e-03  4.5318118423468334e-02  9.0478640459535926e-03  9.5151583501630471e-03  5.0031235805129526e-02  5.0548045599528562e-03  6.3050546162348755e-04  2.3339631273923589e-03  6.3329707512091123e-04  4.2399731319193905e-03  1.1428251890044452e-02  4.0519305189691629e-02  1.4050997786652933e-02  1.1629605750550264e-02  1.2939476370083249e-03  2.9461895735961637e-03  4.1467113086171500e-03  7.2555220869916588e-04  2.0371895371661387e-02  7.2933300739257941e-03  2.8335134406233045e-03  2.6217809490587073e-03  7.4214024522777306e-03  8.3680115473755011e-04  5.1846818315219667e-03  1.5732210383251413e-02  3.7081624210746386e-02  3.3272059174703522e-02  2.1482101925444346e-02  9.8767941647564909e-03  4.1052803883220293e-03  4.7822567939759447e-02  1.5110323982624357e-03  8.1579885981026071e-03  7.1526299110368898e-03  2.5318004336180051e-03  2.0131083144501144e-03  6.5994493767397718e-04  1.5980658585254739e-03  6.6033792223279988e-04  9.9737413852457237e-03  1.4346360350973692e-03  1.2216131885270277e-02  1.5454339213308247e-03  1.8760045683852609e-02  7.8453577143160688e-03  2.4496889220739500e-03  6.6679189086037583e-03  7.1416683841179851e-03  5.9810790668674224e-03  2.1892851195168730e-03  3.6547853527754900e-03  8.6766627476728801e-03  1.9064252623848157e-02  9.9010937603854739e-04  5.4302489658128179e-04  4.2918343870666491e-03  1.3539987416603659e-02  3.1179852067221227e-03  2.4385798012964689e-02  7.3216873627746093e-03  1.3347108411917068e-03  5.0246104963830637e-03  6.2344111800814652e-04  5.9499232714638514e-02  1.7524896580848225e-02  9.3714979359729063e-03  6.8457565345750792e-04  8.5185391153865366e-04  5.4044899465368625e-04  7.3481269560152851e-03  3.2626651178087221e-03  4.8927799134520524e-04  2.5826594202257819e-03  2.0979681679003805e-02  5.6468568895528251e-03  2.0990258008135180e-03  1.0348552778218182e-03  9.6422708644599026e-03  1.4523122707252428e-02  1.5891373232804786e-03  3.4934547101726438e-03  3.5439375739328475e-03  6.6705513478520018e-03  2.9786620808276466e-02  2.6718365554871722e-03  1.7214395649632036e-02  3.5730123239306154e-03  1.0256118637249362e-02  2.1372132095734703e-03  2.5957223958925468e-02  2.2869737411937655e-02  2.9223434653947930e-03  1.5357260669223658e-02  4.8637747140484302e-03  6.6752871067273086e-03  7.3913623164937096e-04  1.3082110487935721e-03  3.5955279430706734e-02  3.4255025041741057e-03  7.3374224650858072e-03  2.5712494653373736e-02  3.4484851732942551e-02  1.7837337571612022e-03  1.6603055439044108e-03  2.8969400640080109e-03  1.3257888488684899e-03  1.4417976198221366e-03  5.1324001995757141e-03  2.1452713691835915e-03  3.9691938922510363e-03  5.0531246570529242e-03  1.2290094390584398e-02  1.8240698256798707e-02  5.2372988818030399e-03  1.1771324332351295e-02  3.7725921165078112e-03  3.3352383845729663e-03  3.3690149542949924e-02  4.5552708374843404e-02  5.7787285874237697e-03  2.0290936786345783e-02  1.6900412889461463e-02  3.2949148493766453e-03  9.0283858540430462e-03  7.8164248310606706e-03  4.6533282742638798e-04  1.3386283114153599e-02  2.8697669714170180e-02  3.6600258922730493e-02  2.2425387873943881e-02  2.4103395839586327e-02  3.9968990271534261e-03  5.7268276432504575e-03  4.0342334874175108e-02  2.2604100182025827e-03  8.8888259284684607e-04  9.0737982098961422e-04  3.7586925617672036e-03  5.1867998916587492e-03  1.0446289678450725e-03  9.1255155602677524e-04  7.7713448693900958e-03  2.4284410854748298e-03  1.3870343083061988e-03  4.0963826651332505e-03  1.0261543877230236e-02  3.4373619044086460e-03  2.0716005353345231e-02  5.3872567721469028e-03  3.4075433230330949e-03  4.9837049027460648e-03  1.7498126556982300e-02  4.2311940783786690e-04  4.4628576023223255e-03  6.3580855768126275e-03  8.8257048446898374e-03  1.3413311993089982e-03  1.8798692776616225e-02  2.2067613372543367e-02  1.5085982564900562e-02  8.2516114784378005e-03  3.9964671119109658e-03  2.1376102640022583e-03  3.3092262680278709e-03  4.4272753837527819e-04  3.0167549685332158e-03  4.9180126926228135e-04  4.8274647268465526e-03  2.9139438542531830e-03  2.5121040421413675e-03  1.9922335986473153e-03  2.5091137497674342e-02  1.9797833470660514e-03  1.2394432279336662e-02  4.4135207101498675e-04  6.2607826972726965e-03  4.5605155260361515e-03  4.6012594994256535e-03  4.8182853352509505e-03  1.6304729765358556e-03  5.8182920301980861e-04  3.9939725424605638e-02  3.6648257545734350e-02  2.1010514448049588e-02  2.9273111571829505e-02  1.5916291994825232e-02  1.1592979402927988e-02  5.9111920525153254e-03  1.6248340758873840e-03  1.1702213955519117e-03  4.7455931108138943e-04  5.1191792622410264e-03  1.1693245938442346e-02  7.9837483095618975e-03  1.9794463820082178e-02  1.9900308221863896e-03  8.7970920849619518e-03  1.3091638199293355e-02  2.1567003353330366e-02  1.9281106667028019e-03  2.5850883329211049e-03  5.1577999288456673e-03  2.0864310067586923e-03  3.2397010672895882e-03  4.6500983918949298e-03  5.8734009681530404e-03  4.4709960549591419e-03  7.2676194091036454e-03  2.8514514438766327e-02  3.8979973950992071e-03  6.6944289395487449e-03  1.1565940185650376e-02  3.2347401070739683e-02  2.6142902127877987e-03  2.8809912173035392e-02  4.4748167081446475e-03  1.9218043305311398e-03  2.6800586629592057e-02  5.1755077065848872e-04  4.1458686925206949e-03  1.0129376702960709e-02  5.5735987849032255e-02  4.7594468819897671e-02  2.8332658282350841e-02  4.0590608145434814e-04  1.1259543197620819e-02  1.4936389831652188e-02  7.0041556183779944e-03  6.2983592681524784e-03  1.0126700641046005e-02  6.3904537823848695e-03  1.9697850012181502e-02  1.3564719007587182e-03  8.8416685770392068e-03  1.5141298986330848e-02  1.6783463351711426e-02  1.7229536408956858e-02  1.3121480424536335e-03  8.4560041017284517e-03  3.3859600265300108e-03  3.5744203721133086e-02  3.2572850365790158e-03  1.7241024995245314e-02  5.5722835099414406e-03  4.9431644604724361e-03  8.9226571078622682e-03  8.2447151655779868e-03  1.2643466329549911e-03  4.3834630333716377e-03  1.5204958896075543e-03  2.7199338027619120e-03  2.1135238453181119e-03  1.2351899334063615e-02  3.7702246954389223e-04  7.6221433771566684e-04  5.4692416429401986e-04  5.8624722039014535e-03  5.7741758016125050e-03  1.2718548774305269e-02  5.7017681303295764e-03  2.8552651726820227e-02  5.3961730019564378e-04  1.2928406942639716e-03  3.5036585762285412e-03  3.7890500029540901e-04  1.1425458623756574e-03  2.9276001497849209e-02  2.5324882116618658e-03  4.1721784580332462e-03  6.9480711027456264e-03  2.0050664570215027e-02  1.9032753982610534e-02  4.6440256923755800e-03  7.9561563969791449e-04  4.4315532577718052e-03  2.5915931245486792e-03  6.9567127287224837e-03  1.2049337135150053e-02  1.9745119063051562e-02  2.4162537672565470e-02  4.8738407415189634e-03  5.7645749029714213e-03  8.2694156322066347e-03  4.2849542862212183e-03  1.2684972625452024e-02  1.9772475481253601e-02  2.2200063280923655e-02  4.0655589389236683e-03  1.4972819536266762e-03  2.3215282085034053e-03  1.5734502135920159e-03  9.0679598049313997e-03  1.4019416965399602e-02  9.8841019285938001e-03  1.1114065410389217e-02  6.9169518412165833e-04  1.1285805874413088e-03  1.6965409670988293e-03  1.3860069448652318e-03  4.6843947344371185e-03  1.0692203269349446e-02  3.8825099202403563e-03  5.4604473521211215e-03  8.3424607011101330e-03  3.4316777861423506e-03  2.5529375019682178e-03  6.1090307921226076e-03  3.4175251587661541e-02  8.6944675103056979e-03  1.4917645542362438e-02  1.4114670779623731e-02  1.6805191953227726e-02  1.7674585546322740e-02  1.6796824871724127e-03  1.9997769245030787e-03  3.6174514344833129e-03  2.3768641690621532e-02  8.4736076588609534e-04  1.3390888638167356e-03  1.5990203685352998e-02  5.6239453929649498e-02  2.5773285103476741e-02  6.7931069992301293e-03  4.2289033069424487e-04  4.0001705739206806e-04  3.9753239603967420e-02  2.1133980443571426e-02  7.9203839245944648e-03  5.0290499433842751e-03  1.7605678050635768e-03  4.5145138371146983e-03  1.0312193560886964e-02  4.8030431646138043e-03  1.2010844989185292e-02  1.5788334113389423e-03  8.9869693306319134e-03  5.6777058744543248e-03  3.4244270870473210e-03  5.8414544759065271e-03  9.7231841265098366e-03  1.4684692196162398e-02  1.9554047062546803e-02  1.2675004892864753e-02  1.1879269306406729e-02  1.2249886209747811e-02  1.6743441497994688e-03  5.7713034602635185e-03  6.5608190086900043e-03  1.3746390013677058e-02  8.7261446642231209e-03  6.8794182782284385e-03  2.5505248215055811e-02  3.0756865045781127e-02  1.3815642274723818e-02  4.9504973690995761e-02  1.5222825450882152e-02  1.7360118759119754e-02  2.0267476034947791e-03  3.1716781507659395e-03  4.9735787883240070e-03  8.2436989796911119e-03  1.0035239247003142e-02  9.4151440990585776e-03  2.6207157591953750e-03  1.0912794966309234e-03  1.8769334873428953e-02  1.1511998490929610e-02  1.7646176018833945e-03  2.8217219278422957e-03  6.6207270475730799e-03  4.4783167100564183e-04  2.7709322955364506e-03  7.0051436140104928e-03  6.0106072284698258e-03  4.8471668563001115e-03  1.9093390002318869e-03  1.0969325921352783e-02  1.0856950083313896e-02  3.2477662735045623e-03  3.8698825667762469e-04  8.4057615999123536e-03  6.5461332281740586e-03  1.9708371320831156e-02  1.3184869078844353e-02  4.7907718907413323e-03  1.6249278602995198e-02  1.2780652776289382e-02  9.1389912125894156e-03  7.3672431337709846e-03  1.6575575988651394e-03  1.7295903370142338e-03  5.9617482694369471e-04  1.4387006306419905e-03  1.7746683224283684e